       8
 i =        0, time =        0.000, E =       -51.1124924860
  O         0.0000000000        0.0000000000        0.0000000000
  H        -0.9474230000        0.4302830000        0.0193690000
  H         0.2833780000        0.0750150000        0.9174990000
  O        -2.3274870000        1.0834790000        0.1441240000
  H        -2.3249180000        1.9066130000       -0.3583740000
  H        -3.7547700000        0.5140580000        0.1683810000
  O        -4.7010860000        0.0849900000        0.1637850000
  H        -4.5807150000       -0.6793110000       -0.4099650000
       8
 i =        1, time =        1.000, E =       -51.1113183453
  O        -0.0005880823       -0.0027749302       -0.0042043847
  H        -0.9362348327        0.4272871599       -0.0125056700
  H         0.2674812933        0.0522533195        0.9151184981
  O        -2.3256102377        1.0797170333        0.1460327430
  H        -2.2976619690        1.8912034606       -0.3440511588
  H        -3.7576005947        0.5192711678        0.1790134556
  O        -4.7021270522        0.0887470236        0.1643129632
  H        -4.5915377723       -0.6981165359       -0.4095161741
       8
 i =        2, time =        2.000, E =       -51.1053236330
  O        -0.0022089076        0.0001008898        0.0006569995
  H        -0.9503463345        0.4192530111       -0.0160947314
  H         0.2725193890        0.0188644079        0.8815569807
  O        -2.3224496543        1.0883510732        0.1430940908
  H        -2.2966173797        1.8576983432       -0.3375261554
  H        -3.7624317114        0.5595985335        0.1746131092
  O        -4.7082449285        0.0849485315        0.1632472716
  H        -4.5716434377       -0.6802876667       -0.4317916087
       8
 i =        3, time =        3.000, E =       -51.1035892119
  O        -0.0045303939        0.0038826530        0.0017231999
  H        -0.9687862238        0.3910463132        0.0133723307
  H         0.2660454123        0.0265891167        0.8688172878
  O        -2.3215315599        1.0988830068        0.1434359137
  H        -2.2575017957        1.8653267424       -0.3385114958
  H        -3.7487296913        0.5780084737        0.1849213397
  O        -4.7009908171        0.0812587472        0.1626665247
  H        -4.5605881537       -0.6450538312       -0.4472197277
       8
 i =        4, time =        4.000, E =       -51.1006508568
  O        -0.0035841353        0.0041719195        0.0052737125
  H        -0.9974684397        0.3669152357        0.0232887518
  H         0.2627188397        0.0382891345        0.8579342193
  O        -2.3222920610        1.1033438901        0.1413112961
  H        -2.2368527095        1.8819552766       -0.3261802206
  H        -3.7369519640        0.5784432585        0.1530910515
  O        -4.6936778421        0.0801014247        0.1576367136
  H        -4.5404257252       -0.6359022047       -0.4211978675
       8
 i =        5, time =        5.000, E =       -51.1083664908
  O        -0.0024349330        0.0016674841        0.0055878001
  H        -1.0087200814        0.3485198763        0.0084469632
  H         0.2703014832        0.0786560942        0.8939190354
  O        -2.3254821882        1.1056446080        0.1458855635
  H        -2.2171303305        1.9080754782       -0.3177890059
  H        -3.7279486774        0.5827554370        0.1242994672
  O        -4.6845921775        0.0826993067        0.1599196547
  H        -4.5256839612       -0.6528009276       -0.4182920947
       8
 i =        6, time =        6.000, E =       -51.1112434214
  O        -0.0036259846       -0.0043157623        0.0073697268
  H        -0.9923432137        0.3266287546        0.0187587841
  H         0.2917100382        0.0943112301        0.9179814045
  O        -2.3254954370        1.1116083355        0.1558609481
  H        -2.2247958435        1.9534185192       -0.3122849944
  H        -3.7366579778        0.5626691626        0.1182240505
  O        -4.6832035681        0.0842878637        0.1555917703
  H        -4.5067936930       -0.6714287012       -0.4372372064
       8
 i =        7, time =        7.000, E =       -51.1083292312
  O        -0.0018797553       -0.0104884979        0.0083437447
  H        -0.9552690094        0.3015345638        0.0140128781
  H         0.3302151271        0.1121282967        0.9459191041
  O        -2.3257075239        1.1108050779        0.1598105792
  H        -2.2424355480        1.9441640188       -0.3047967361
  H        -3.7532741139        0.5707159351        0.1189989847
  O        -4.6810505161        0.0820469453        0.1551717819
  H        -4.5042266025       -0.6866473898       -0.4302278006
       8
 i =        8, time =        8.000, E =       -51.1072980675
  O        -0.0013810927       -0.0092555620        0.0144662960
  H        -0.9476700983        0.2849995151       -0.0073136662
  H         0.3331982787        0.1284202106        0.9143280822
  O        -2.3256075057        1.1147839239        0.1597959573
  H        -2.2621077794        1.9372860307       -0.2971258056
  H        -3.7592691621        0.5888263707        0.1244249752
  O        -4.6853600528        0.0811240750        0.1560735216
  H        -4.5111854800       -0.6886747659       -0.4221043864
       8
 i =        9, time =        9.000, E =       -51.1081890703
  O        -0.0034478808        0.0003874653        0.0204111145
  H        -0.9671570462        0.3116352288       -0.0212091153
  H         0.3558972115        0.1354687410        0.8916779562
  O        -2.3294726614        1.1159605964        0.1593411898
  H        -2.2493090708        1.9508730558       -0.3094814502
  H        -3.7558745473        0.5892185117        0.1222862557
  O        -4.6869423476        0.0773778360        0.1591067416
  H        -4.5369700641       -0.6750898120       -0.4129352796
       8
 i =       10, time =       10.000, E =       -51.1082179103
  O        -0.0032696520       -0.0056191757        0.0198374758
  H        -0.9656350569        0.3295310247       -0.0062411131
  H         0.3552883736        0.1542216291        0.8670515404
  O        -2.3359967112        1.1210020170        0.1547017565
  H        -2.2674967491        1.9896838670       -0.2957988778
  H        -3.7192639503        0.5800403325        0.1474959185
  O        -4.6851735319        0.0722559810        0.1683982439
  H        -4.5700456185       -0.6870404860       -0.4025852309
       8
 i =       11, time =       11.000, E =       -51.1095057427
  O        -0.0061547770       -0.0041199094        0.0130433719
  H        -0.9572321252        0.3323783490        0.0207695332
  H         0.3530903756        0.1807271446        0.8727337550
  O        -2.3433514120        1.1294802142        0.1591248978
  H        -2.2594152982        2.0090633033       -0.2601664304
  H        -3.7217891903        0.5754687085        0.1275197037
  O        -4.6838554470        0.0776914508        0.1752871544
  H        -4.5790467844       -0.7060583739       -0.4025332941
       8
 i =       12, time =       12.000, E =       -51.1080946790
  O        -0.0045939937       -0.0066107444        0.0050066795
  H        -0.9285832829        0.3462128379        0.0230037031
  H         0.3579843436        0.2023455100        0.8625411468
  O        -2.3487172533        1.1434871222        0.1533646076
  H        -2.2524173147        2.0384166047       -0.2638192429
  H        -3.7423363249        0.5972624160        0.1026334890
  O        -4.6806609734        0.0764244196        0.1792801017
  H        -4.5895996378       -0.7058959580       -0.4143224122
       8
 i =       13, time =       13.000, E =       -51.1080751651
  O        -0.0011335556       -0.0100139552        0.0058746983
  H        -0.9233737345        0.3647898650        0.0148519755
  H         0.3810730915        0.1988530647        0.8813529920
  O        -2.3498074677        1.1433466963        0.1516875003
  H        -2.2699192406        2.0510190546       -0.2576583981
  H        -3.7519359549        0.6039442044        0.0932778240
  O        -4.6788149151        0.0808604508        0.1827516851
  H        -4.6063693605       -0.7006308609       -0.4138511899
       8
 i =       14, time =       14.000, E =       -51.1078927660
  O        -0.0039353390       -0.0163243545        0.0073471109
  H        -0.9363053495        0.3902231251        0.0013422857
  H         0.3899261100        0.2178414916        0.8818090122
  O        -2.3525902014        1.1340995601        0.1490539391
  H        -2.2591362149        2.0418993745       -0.2454895605
  H        -3.7492355476        0.6040961324        0.0930467658
  O        -4.6804367808        0.0868079441        0.1877941257
  H        -4.6016581883       -0.7023623909       -0.4400512533
       8
 i =       15, time =       15.000, E =       -51.1081465314
  O        -0.0047997126       -0.0172652027        0.0085716096
  H        -0.9746184419        0.4165629123       -0.0011512485
  H         0.3841216371        0.1951693578        0.8758700320
  O        -2.3530462075        1.1368651271        0.1472152949
  H        -2.2813908381        2.0606602375       -0.2241130972
  H        -3.7904932329        0.5770245428        0.0707130506
  O        -4.6781702800        0.0925180017        0.1836983291
  H        -4.6153791841       -0.6763766278       -0.4541809393
       8
 i =       16, time =       16.000, E =       -51.1085663574
  O        -0.0085643220       -0.0191542579        0.0022840892
  H        -0.9796577528        0.4208621697        0.0050376412
  H         0.3873031327        0.1973690678        0.8527111775
  O        -2.3558675762        1.1408911095        0.1448859898
  H        -2.2772322356        2.0573029729       -0.2161270315
  H        -3.7960198226        0.5693363165        0.0501827313
  O        -4.6755584645        0.0945465105        0.1846427745
  H        -4.6273945224       -0.6523544160       -0.4516183180
       8
 i =       17, time =       17.000, E =       -51.1067307163
  O        -0.0073063338       -0.0183141147        0.0029013069
  H        -0.9909001611        0.4338918256       -0.0224004457
  H         0.4040800608        0.1898648778        0.8581096079
  O        -2.3581199140        1.1388482658        0.1458166293
  H        -2.2681022203        2.0455709228       -0.2076795913
  H        -3.8079453515        0.5517449910        0.0105668011
  O        -4.6738722758        0.0876535099        0.1855852336
  H        -4.6270388866       -0.6485247364       -0.4411869099
       8
 i =       18, time =       18.000, E =       -51.1058919484
  O        -0.0085335334       -0.0149619238        0.0022627958
  H        -1.0087599672        0.4246157873       -0.0428100328
  H         0.3919371936        0.1984917624        0.8697834091
  O        -2.3638245956        1.1400613854        0.1521709777
  H        -2.2748130540        2.0282590373       -0.1843363685
  H        -3.7918790423        0.5705417018       -0.0150412460
  O        -4.6720738684        0.0902227741        0.1770515564
  H        -4.6409467391       -0.6172846317       -0.4646753111
       8
 i =       19, time =       19.000, E =       -51.1040008854
  O        -0.0128022541       -0.0140451314       -0.0052370542
  H        -1.0233789793        0.4137927397       -0.0380833581
  H         0.3987416991        0.2058561128        0.8895387088
  O        -2.3672355464        1.1413285546        0.1577105149
  H        -2.2666297517        2.0342573819       -0.1748961724
  H        -3.7982411856        0.5799609852       -0.0453714395
  O        -4.6746458732        0.0937180723        0.1713664847
  H        -4.6304521128       -0.6229818808       -0.4725001135
       8
 i =       20, time =       20.000, E =       -51.1052749516
  O        -0.0098154012       -0.0163314118       -0.0045056120
  H        -1.0191129735        0.4265019496       -0.0331420830
  H         0.3821135068        0.1794213641        0.8630616359
  O        -2.3686855393        1.1441219665        0.1520454812
  H        -2.2535190824        2.0513140113       -0.1552988812
  H        -3.8129678230        0.6015534557       -0.0552390007
  O        -4.6732900192        0.0991363443        0.1660368010
  H        -4.6374349655       -0.6307872789       -0.4761625030
       8
 i =       21, time =       21.000, E =       -51.1057947894
  O        -0.0064247859       -0.0201275347       -0.0001542380
  H        -1.0129281604        0.4235936632       -0.0075871174
  H         0.3579038175        0.1648806410        0.8494295715
  O        -2.3713785732        1.1445831763        0.1555991654
  H        -2.2400949440        2.0724208593       -0.1533969468
  H        -3.7914782679        0.6028849509       -0.0320709570
  O        -4.6711978631        0.1010235279        0.1570227469
  H        -4.6063697272       -0.6168997904       -0.4636983857
       8
 i =       22, time =       22.000, E =       -51.1051674051
  O         0.0003582835       -0.0237409579        0.0062742968
  H        -0.9883460232        0.4214662615        0.0189742395
  H         0.3626704102        0.1450422374        0.8416756835
  O        -2.3715684662        1.1530617919        0.1601765269
  H        -2.2290840152        2.0933254581       -0.1573948894
  H        -3.7802233074        0.5783810359       -0.0171878290
  O        -4.6705288879        0.1046720164        0.1500912277
  H        -4.6177169725       -0.6412584774       -0.4603855459
       8
 i =       23, time =       23.000, E =       -51.1058908070
  O         0.0071889388       -0.0261132123        0.0066798291
  H        -0.9600359735        0.4217472876        0.0003215217
  H         0.3775351607        0.1536234163        0.8624537517
  O        -2.3678050675        1.1547721445        0.1582545106
  H        -2.2274319020        2.1106621472       -0.1684110403
  H        -3.7518736215        0.5677516897       -0.0312132233
  O        -4.6698009704        0.1104915080        0.1463544599
  H        -4.6171138350       -0.6441369860       -0.4632699594
       8
 i =       24, time =       24.000, E =       -51.1027636646
  O         0.0093119167       -0.0291066772        0.0128075313
  H        -0.9403397448        0.4015683942       -0.0297609435
  H         0.4026488270        0.1461334078        0.8992421694
  O        -2.3649151322        1.1547719286        0.1591404344
  H        -2.2434177829        2.1242730050       -0.1949925771
  H        -3.7279901601        0.5704361122       -0.0604375003
  O        -4.6672517314        0.1118674190        0.1409935337
  H        -4.6426512534       -0.6390804127       -0.4483641317
       8
 i =       25, time =       25.000, E =       -51.1037110805
  O         0.0129675146       -0.0385323030        0.0233984907
  H        -0.9147941325        0.3954549456       -0.0573681437
  H         0.3883684724        0.1573678961        0.8984574391
  O        -2.3628660146        1.1507373458        0.1551042393
  H        -2.2823438238        2.1086299387       -0.1906105339
  H        -3.7431550476        0.5724197319       -0.0754331793
  O        -4.6653255963        0.1075538287        0.1363782053
  H        -4.6675123547       -0.6667465289       -0.4434182672
       8
 i =       26, time =       26.000, E =       -51.1053232407
  O         0.0161615037       -0.0412252160        0.0268952161
  H        -0.9254860014        0.4036567589       -0.0391889531
  H         0.3640867919        0.1537883589        0.8884595462
  O        -2.3602420495        1.1501126895        0.1585178955
  H        -2.2769738725        2.0839257629       -0.1945127666
  H        -3.7638727546        0.5816790588       -0.0730463360
  O        -4.6699089110        0.1095151012        0.1365883042
  H        -4.6745569013       -0.6857896968       -0.4347710614
       8
 i =       27, time =       27.000, E =       -51.1065379625
  O         0.0190509463       -0.0437389289        0.0231271067
  H        -0.9560686125        0.3988702474       -0.0194675357
  H         0.3442962152        0.1652237628        0.8928120139
  O        -2.3613925656        1.1545047633        0.1617316368
  H        -2.2679167847        2.0664471309       -0.1873819839
  H        -3.7704261104        0.5944634721       -0.0533561357
  O        -4.6706283640        0.1133243240        0.1402457113
  H        -4.6807503384       -0.6972143233       -0.4170047456
       8
 i =       28, time =       28.000, E =       -51.1070991839
  O         0.0219539973       -0.0408705187        0.0217408435
  H        -0.9687313363        0.3919583609       -0.0048009178
  H         0.3125859507        0.1762860835        0.9161060364
  O        -2.3557110977        1.1609648520        0.1637000734
  H        -2.2741342507        2.0605359763       -0.1861226477
  H        -3.7745260737        0.6188899913       -0.0493686755
  O        -4.6735676829        0.1205255796        0.1433696804
  H        -4.6770331304       -0.6807010757       -0.3919863945
       8
 i =       29, time =       29.000, E =       -51.1059104702
  O         0.0216366848       -0.0360236399        0.0219545555
  H        -0.9827862983        0.3819781037        0.0100983318
  H         0.3078452031        0.2069763194        0.9536399951
  O        -2.3541986259        1.1684624356        0.1668887759
  H        -2.2488255048        2.0603426469       -0.1850594360
  H        -3.7727757149        0.6201110291       -0.0442432308
  O        -4.6743726582        0.1202994228        0.1438605538
  H        -4.6785901563       -0.6667280501       -0.3917194431
       8
 i =       30, time =       30.000, E =       -51.1048104013
  O         0.0204296085       -0.0368461356        0.0235512230
  H        -0.9799993319        0.3891347171        0.0346110606
  H         0.2974326535        0.2416721546        0.9778244374
  O        -2.3484395709        1.1660581688        0.1652028010
  H        -2.2453702473        2.0373078642       -0.2032461523
  H        -3.7560510417        0.6025052310       -0.0329891553
  O        -4.6734539771        0.1276795815        0.1458649557
  H        -4.6797819711       -0.6589688349       -0.4118440816
       8
 i =       31, time =       31.000, E =       -51.1055336400
  O         0.0187689677       -0.0352197826        0.0208006651
  H        -0.9628670664        0.3990919558        0.0305473969
  H         0.3323401966        0.2505494852        0.9570231764
  O        -2.3426106439        1.1657968539        0.1643719809
  H        -2.2513103110        2.0422485137       -0.2139005392
  H        -3.7489749831        0.6057245813       -0.0328741805
  O        -4.6648756596        0.1339716847        0.1406952104
  H        -4.6999950071       -0.6664344425       -0.4292920579
       8
 i =       32, time =       32.000, E =       -51.1044818481
  O         0.0136078494       -0.0256328721        0.0196910392
  H        -0.9409834853        0.4142849235        0.0371426430
  H         0.3508287421        0.2652649095        0.9581058404
  O        -2.3393627267        1.1625898830        0.1648362842
  H        -2.2434286250        2.0343873205       -0.2154676908
  H        -3.7304749955        0.5898353217       -0.0242559499
  O        -4.6612924714        0.1406366106        0.1402321968
  H        -4.7243759839       -0.6732779748       -0.4358663020
       8
 i =       33, time =       33.000, E =       -51.1033036578
  O         0.0134962604       -0.0213384190        0.0190684157
  H        -0.9477675318        0.4225181807        0.0737373037
  H         0.3667558137        0.2623219140        0.9499225527
  O        -2.3364324770        1.1676935333        0.1658613075
  H        -2.2574726533        2.0291873179       -0.1902331071
  H        -3.7222122593        0.5897392852       -0.0204539610
  O        -4.6500338572        0.1379225507        0.1399035987
  H        -4.7566375696       -0.6675528252       -0.4339893386
       8
 i =       34, time =       34.000, E =       -51.1062382335
  O         0.0207737074       -0.0226093125        0.0183959342
  H        -0.9630546428        0.4150092990        0.0870555659
  H         0.3628170596        0.2386397794        0.9271911556
  O        -2.3382766260        1.1692174321        0.1664909466
  H        -2.2699996394        2.0294223034       -0.2132366974
  H        -3.7181149050        0.5805641548       -0.0197651084
  O        -4.6508949089        0.1313867689        0.1324249644
  H        -4.7445229086       -0.6666215609       -0.4350922601
       8
 i =       35, time =       35.000, E =       -51.1070327792
  O         0.0210013161       -0.0263250325        0.0175634562
  H        -0.9800433160        0.4025788126        0.0899739992
  H         0.3444188334        0.2284120968        0.9089928062
  O        -2.3302336701        1.1670794484        0.1647323423
  H        -2.2656903915        2.0253459029       -0.2251524859
  H        -3.7135212347        0.5680739543       -0.0268641167
  O        -4.6553765710        0.1283222215        0.1316246536
  H        -4.7477185607       -0.6691423509       -0.4305053923
       8
 i =       36, time =       36.000, E =       -51.1048411826
  O         0.0197590360       -0.0344850255        0.0239148253
  H        -0.9617666110        0.3990372147        0.0744454554
  H         0.3094504288        0.2264786276        0.8666798833
  O        -2.3298643606        1.1677454216        0.1632674748
  H        -2.2709277549        2.0316642684       -0.2242174530
  H        -3.7247121209        0.5610356548        0.0040598128
  O        -4.6494253348        0.1251936586        0.1264448721
  H        -4.7467478513       -0.6497520923       -0.3998166519
       8
 i =       37, time =       37.000, E =       -51.1005990967
  O         0.0152277146       -0.0438940526        0.0201074187
  H        -0.9882650844        0.3696457958        0.1046178348
  H         0.3236800255        0.2144037513        0.8488413516
  O        -2.3356199221        1.1760750650        0.1587294173
  H        -2.2738716576        2.0459456851       -0.2412635939
  H        -3.7213406691        0.5545965941        0.0250023102
  O        -4.6487919452        0.1230774185        0.1179468348
  H        -4.7536867422       -0.6215361081       -0.3945598727
       8
 i =       38, time =       38.000, E =       -51.1054975671
  O         0.0164067062       -0.0412872099        0.0167763753
  H        -0.9825805152        0.3737589748        0.1085300814
  H         0.3744948292        0.2103881580        0.8726925222
  O        -2.3388531899        1.1739995423        0.1589042865
  H        -2.2887709727        2.0550938212       -0.2346358523
  H        -3.7260780514        0.5567885002       -0.0057773537
  O        -4.6486125605        0.1231677458        0.1193840931
  H        -4.7951289924       -0.6453662413       -0.4070006908
       8
 i =       39, time =       39.000, E =       -51.1066073492
  O         0.0159466732       -0.0406941076        0.0158510974
  H        -0.9724979471        0.3743626070        0.1139570670
  H         0.4244884536        0.2120082671        0.8714126455
  O        -2.3412894854        1.1787356212        0.1589742106
  H        -2.3047865004        2.0778047709       -0.2307477517
  H        -3.6925575376        0.5532293667       -0.0066179157
  O        -4.6526335920        0.1227761981        0.1095130535
  H        -4.8051645512       -0.6671797508       -0.4161231006
       8
 i =       40, time =       40.000, E =       -51.1064149499
  O         0.0187537810       -0.0397982432        0.0157791552
  H        -0.9719075739        0.3916974261        0.1154916518
  H         0.4503474311        0.2248258329        0.8601018226
  O        -2.3408328969        1.1780977413        0.1635318377
  H        -2.3179324005        2.0762381986       -0.2513402022
  H        -3.7020325449        0.5558364011       -0.0067641406
  O        -4.6556029177        0.1238988534        0.1122708861
  H        -4.7938082367       -0.6825184943       -0.4109714598
       8
 i =       41, time =       41.000, E =       -51.1057638210
  O         0.0200170985       -0.0340567873        0.0158673717
  H        -0.9716256951        0.4101624381        0.0985518144
  H         0.4583014713        0.2230134225        0.8700144706
  O        -2.3412332046        1.1779077069        0.1595275397
  H        -2.3319348298        2.0512369335       -0.2446777469
  H        -3.7103198988        0.5403478714        0.0098432365
  O        -4.6625270842        0.1172679190        0.1098292901
  H        -4.8078587248       -0.6703194733       -0.3862610456
       8
 i =       42, time =       42.000, E =       -51.1046802496
  O         0.0236591742       -0.0338765858        0.0177744626
  H        -0.9920264125        0.4129132756        0.0810696213
  H         0.4614970314        0.2046067941        0.8711295292
  O        -2.3388746340        1.1759618506        0.1598382616
  H        -2.3372855602        2.0296292532       -0.2555877440
  H        -3.7204792246        0.5393399516        0.0169479970
  O        -4.6714989096        0.1171557497        0.1111874609
  H        -4.8512810454       -0.6607205943       -0.4066273047
       8
 i =       43, time =       43.000, E =       -51.1032458637
  O         0.0289348160       -0.0369010246        0.0213751162
  H        -1.0111372820        0.4348303039        0.0663035989
  H         0.4569533898        0.1917181053        0.8601628146
  O        -2.3340375415        1.1805501491        0.1639368763
  H        -2.3055323690        2.0238567671       -0.2626837608
  H        -3.7153547183        0.5535337688        0.0123772574
  O        -4.6776241704        0.1123275895        0.1066864171
  H        -4.8624919004       -0.6703193089       -0.4031208190
       8
 i =       44, time =       44.000, E =       -51.1034496015
  O         0.0324522477       -0.0365856936        0.0197267388
  H        -1.0070358276        0.4283253529        0.0665608295
  H         0.4597570121        0.1880671927        0.8660893949
  O        -2.3282267432        1.1780802805        0.1586180109
  H        -2.2797930995        2.0161917943       -0.2637018761
  H        -3.7227992282        0.5590009437        0.0202769200
  O        -4.6805632703        0.1095749249        0.1069721120
  H        -4.8494093773       -0.6753342727       -0.4137932412
       8
 i =       45, time =       45.000, E =       -51.1036197155
  O         0.0307048336       -0.0331831019        0.0170291701
  H        -1.0002097923        0.4179802679        0.0910037467
  H         0.4867720850        0.2021274031        0.8573775846
  O        -2.3229126678        1.1783360133        0.1545869215
  H        -2.2541516948        1.9986308147       -0.2838526229
  H        -3.7339449710        0.5653914966        0.0418697565
  O        -4.6863942019        0.1056910044        0.1078474416
  H        -4.8304571224       -0.6797493779       -0.4296411482
       8
 i =       46, time =       46.000, E =       -51.1042708369
  O         0.0272975596       -0.0329537817        0.0163228792
  H        -0.9863362610        0.4230336162        0.0950926879
  H         0.4991581848        0.1976190973        0.8588667975
  O        -2.3158846616        1.1761002203        0.1559686766
  H        -2.2437681048        2.0186097854       -0.2680674325
  H        -3.7427359810        0.5859854693        0.0546795002
  O        -4.6853495299        0.1078861326        0.1052634910
  H        -4.8126676640       -0.7024948719       -0.4230132897
       8
 i =       47, time =       47.000, E =       -51.1021652885
  O         0.0266823475       -0.0380779864        0.0149583823
  H        -0.9903520185        0.4106449847        0.1115540867
  H         0.5272835612        0.2012661806        0.8507494176
  O        -2.3066498785        1.1712006421        0.1562208571
  H        -2.2210612371        2.0683485187       -0.2557968685
  H        -3.7113806443        0.5997996741        0.0620247073
  O        -4.6857585940        0.1179583853        0.1026744315
  H        -4.8182423930       -0.7365723907       -0.3910770533
       8
 i =       48, time =       48.000, E =       -51.1015647735
  O         0.0307295505       -0.0410289913        0.0164643695
  H        -0.9821380530        0.3887830117        0.1193188885
  H         0.5509369415        0.2214034297        0.8439669154
  O        -2.3032672064        1.1689671124        0.1541646962
  H        -2.2262797389        2.0789769379       -0.2339772525
  H        -3.6960332745        0.5967986546        0.0758789138
  O        -4.6866955879        0.1191188271        0.1108636403
  H        -4.8049667092       -0.7354739459       -0.3915195860
       8
 i =       49, time =       49.000, E =       -51.1011440949
  O         0.0288832834       -0.0394165669        0.0179668070
  H        -0.9771876476        0.3944188773        0.1090507502
  H         0.5668951469        0.2218685705        0.8429649674
  O        -2.2999137473        1.1735293047        0.1546801421
  H        -2.2189552850        2.0699379519       -0.2169841213
  H        -3.6655198457        0.5776266553        0.0802092168
  O        -4.6895416833        0.1191816455        0.1134858916
  H        -4.8153397776       -0.7423355499       -0.3751897160
       8
 i =       50, time =       50.000, E =       -51.1011595549
  O         0.0273670294       -0.0393553721        0.0181504996
  H        -0.9609846530        0.4023020809        0.1077447215
  H         0.5698357756        0.2005819243        0.8511176988
  O        -2.2975216585        1.1773780139        0.1541372375
  H        -2.2067720291        2.0683145655       -0.2110640766
  H        -3.6419873241        0.5487782763        0.1039797273