       7
 i =        0, time =        0.000, E =       -49.5373022396
  O         0.0775431841        1.0153893514        1.8757421867
  O         1.3288196566        1.2506544568       -0.8594243751
  H         0.7011915084        1.3421578972        1.1946031311
  H         0.7726654535        0.4031593024       -0.7923193549
  H         0.6713092698        1.8767348616       -1.2060546689
  H        -0.3152501344        0.2613427256        1.3640085206
 Cl        -0.6002123072       -1.0749949208       -0.4755672450
       7
 i =        1, time =        1.000, E =       -49.5367380530
  O         0.0803270964        1.0169226874        1.8754467771
  O         1.3281491062        1.2512323783       -0.8615820903
  H         0.7313526141        1.3244005899        1.2070483634
  H         0.8008152287        0.3957386056       -0.7862572243
  H         0.6815070171        1.8698723511       -1.1840886083
  H        -0.3140994163        0.2546784839        1.3785084581
 Cl        -0.6031464480       -1.0748475744       -0.4760231741
       7
 i =        2, time =        2.000, E =       -49.5357611851
  O         0.0832582597        1.0185403723        1.8751549244
  O         1.3280752145        1.2515102126       -0.8635603942
  H         0.7611842797        1.3051212258        1.2204622296
  H         0.8279037940        0.3871714465       -0.7803138327
  H         0.6844331823        1.8687088345       -1.1647366474
  H        -0.3125707547        0.2481453431        1.3927432633
 Cl        -0.6061896686       -1.0747003307       -0.4764914667
       7
 i =        3, time =        3.000, E =       -49.5354275566
  O         0.0864775163        1.0203101484        1.8748680058
  O         1.3290326888        1.2513323475       -0.8652758975
  H         0.7900767156        1.2829752566        1.2357541687
  H         0.8527713185        0.3767219740       -0.7746765727
  H         0.6752752374        1.8763075785       -1.1489998698
  H        -0.3102363226        0.2419486044        1.4064487734
 Cl        -0.6094373188       -1.0745536509       -0.4769831325
       7
 i =        4, time =        4.000, E =       -49.5352066779
  O         0.0898849497        1.0221582648        1.8746259107
  O         1.3309806011        1.2508841662       -0.8667135352
  H         0.8158805091        1.2584750283        1.2523883954
  H         0.8728722179        0.3652295807       -0.7699969954
  H         0.6559090130        1.8891578589       -1.1359726969
  H        -0.3068718308        0.2367084112        1.4185326561
 Cl        -0.6127639892       -1.0744179839       -0.4774756329
       7
 i =        5, time =        5.000, E =       -49.5343544461
  O         0.0934348768        1.0240392255        1.8744838709
  O         1.3335368117        1.2505590909       -0.8680268048
  H         0.8382709308        1.2320121021        1.2696901026
  H         0.8871837623        0.3541987257       -0.7667481255
  H         0.6329015988        1.8996012597       -1.1225119357
  H        -0.3023775818        0.2327255158        1.4285403509
 Cl        -0.6161413181       -1.0742981553       -0.4779617739
       7
 i =        6, time =        6.000, E =       -49.5334362838
  O         0.0972229939        1.0259851837        1.8745097061
  O         1.3363872517        1.2506640913       -0.8694080161
  H         0.8588712829        1.2030704794        1.2874006206
  H         0.8960323166        0.3452022610       -0.7652041130
  H         0.6119172570        1.9009372700       -1.1052982539
  H        -0.2966676461        0.2299522535        1.4366446789
 Cl        -0.6197076508       -1.0741918914       -0.4784586916
       7
 i =        7, time =        7.000, E =       -49.5333579305
  O         0.1012150730        1.0279595113        1.8747799178
  O         1.3392469762        1.2513195429       -0.8709250417
  H         0.8789969335        1.1722482604        1.3045576870
  H         0.8997304979        0.3403126881       -0.7656752718
  H         0.5971031241        1.8890291860       -1.0828020125
  H        -0.2900650097        0.2283337691        1.4427280241
 Cl        -0.6234863521       -1.0740998925       -0.4789669212
       7
 i =        8, time =        8.000, E =       -49.5340308536
  O         0.1051326073        1.0297980871        1.8753135075
  O         1.3418323863        1.2523627918       -0.8724597585
  H         0.8984479355        1.1422970755        1.3194657812
  H         0.8989767614        0.3411700163       -0.7681904811
  H         0.5899282580        1.8650159614       -1.0566305718
  H        -0.2836029298        0.2277645712        1.4464068006
 Cl        -0.6272392511       -1.0740269247       -0.4794525845
       7
 i =        9, time =        9.000, E =       -49.5343838386
  O         0.1088802816        1.0314129266        1.8760603912
  O         1.3441963048        1.2534469392       -0.8738822556
  H         0.9168153044        1.1148659912        1.3318730667
  H         0.8951942936        0.3475211843       -0.7723996702
  H         0.5869706140        1.8346378911       -1.0291447720
  H        -0.2781975866        0.2280130829        1.4477528180
 Cl        -0.6308383259       -1.0739720004       -0.4798984142
       7
 i =       10, time =       10.000, E =       -49.5338918353
  O         0.1126031013        1.0328024754        1.8769505386
  O         1.3466978604        1.2542155642       -0.8751263375
  H         0.9337331271        1.0900267661        1.3428615406
  H         0.8897403141        0.3576962985       -0.7779004506
  H         0.5816736116        1.8048908629       -1.0018016448
  H        -0.2743636740        0.2289792124        1.4470907603
 Cl        -0.6343353971       -1.0739296841       -0.4803104083
       7
 i =       11, time =       11.000, E =       -49.5332690498
  O         0.1166108885        1.0339990494        1.8779374311
  O         1.3497968224        1.2544438787       -0.8762108377
  H         0.9490618908        1.0669084095        1.3540833171
  H         0.8834763593        0.3693447018       -0.7844824273
  H         0.5675292156        1.7810842416       -0.9743889968
  H        -0.2723489244        0.2308724743        1.4447141539
 Cl        -0.6379193632       -1.0738928832       -0.4807095425
       7
 i =       12, time =       12.000, E =       -49.5329963173
  O         0.1210451418        1.0349532244        1.8789485847
  O         1.3535736945        1.2541484966       -0.8771701320
  H         0.9620969240        1.0457490749        1.3665147875
  H         0.8772200599        0.3790517618       -0.7917769781
  H         0.5429428270        1.7660789422       -0.9466373803
  H        -0.2724403479        0.2341342247        1.4409532560
 Cl        -0.6416364698       -1.0738562368       -0.4810987277
       7
 i =       13, time =       13.000, E =       -49.5324119426
  O         0.1258609527        1.0355779115        1.8799109219
  O         1.3575677339        1.2536402694       -0.8780495370
  H         0.9724291089        1.0274056864        1.3802295364
  H         0.8718725614        0.3835226198       -0.7993703576
  H         0.5140355099        1.7583002037       -0.9182926352
  H        -0.2747507477        0.2392470198        1.4362744617
 Cl        -0.6454203513       -1.0738154740       -0.4814688249
       7
 i =       14, time =       14.000, E =       -49.5313430729
  O         0.1311282285        1.0358256253        1.8808333662
  O         1.3612496332        1.2532582804       -0.8789037981
  H         0.9810287734        1.0118340602        1.3951772010
  H         0.8682964674        0.3813773201       -0.8074023141
  H         0.4892628501        1.7534227534       -0.8881399052
  H        -0.2792925065        0.2468242762        1.4309163908
 Cl        -0.6493518050       -1.0737649504       -0.4818258136
       7
 i =       15, time =       15.000, E =       -49.5305668758
  O         0.1369579766        1.0356575617        1.8817775055
  O         1.3641759205        1.2531776764       -0.8797467535
  H         0.9896751067        0.9986866702        1.4110616744
  H         0.8677951690        0.3729753659       -0.8163727432
  H         0.4757250655        1.7477194071       -0.8550235156
  H        -0.2861310472        0.2575175871        1.4248614479
 Cl        -0.6535746116       -1.0736979520       -0.4821806985
       7
 i =       16, time =       16.000, E =       -49.5308338948
  O         0.1431332578        1.0350599910        1.8827787431
  O         1.3659115367        1.2533735152       -0.8805104536
  H         0.9998874142        0.9881727480        1.4265465273
  H         0.8720923680        0.3605443015       -0.8264277702
  H         0.4782015202        1.7395255921       -0.8199362708
  H        -0.2949283607        0.2712196175        1.4181866654
 Cl        -0.6580101159       -1.0736109759       -0.4825254649
       7
 i =       17, time =       17.000, E =       -49.5318948702
  O         0.1491346313        1.0341087621        1.8838163317
  O         1.3663040787        1.2536165559       -0.8810968170
  H         1.0119019785        0.9806086542        1.4398334974
  H         0.8821471187        0.3477988129       -0.8371127863
  H         0.4958000728        1.7299478832       -0.7857304012
  H        -0.3046709675        0.2866473119        1.4111062912
 Cl        -0.6623472678       -1.0735067576       -0.4828364357
       7
 i =       18, time =       18.000, E =       -49.5327218847
  O         0.1546681282        1.0329210733        1.8848623315
  O         1.3656975699        1.2535779523       -0.8814858177
  H         1.0247032086        0.9756604290        1.4502935721
  H         0.8976802627        0.3377167350       -0.8480148296
  H         0.5216878467        1.7221534817       -0.7538340985
  H        -0.3143687654        0.3024654796        1.4035661291
 Cl        -0.6663872748       -1.0733890671       -0.4831015437
       7
 i =       19, time =       19.000, E =       -49.5329067825
  O         0.1598637251        1.0315594367        1.8859248896
  O         1.3646953498        1.2529377170       -0.8817569117
  H         1.0369508458        0.9725519670        1.4585836850
  H         0.9180672535        0.3314246353       -0.8592302122
  H         0.5472552171        1.7199760137       -0.7227494604
  H        -0.3235846328        0.3182611215        1.3950610627
 Cl        -0.6701960073       -1.0732569105       -0.4833273522
       7
 i =       20, time =       20.000, E =       -49.5331626982
  O         0.1650526576        1.0300175915        1.8870428504
  O         1.3638536265        1.2514504477       -0.8820368084
  H         1.0474955522        0.9705308737        1.4656950609
  H         0.9427446979        0.3287794957       -0.8711768671
  H         0.5656843288        1.7266984842       -0.6892817948
  H        -0.3321850138        0.3343530856        1.3848036444
 Cl        -0.6739782660       -1.0731048650       -0.4835266092
       7
 i =       21, time =       21.000, E =       -49.5337342955
  O         0.1700815852        1.0283998911        1.8881645652
  O         1.3635218839        1.2492563624       -0.8823938852
  H         1.0547027069        0.9691406192        1.4717061955
  H         0.9683504559        0.3288568207       -0.8831454593
  H         0.5737046547        1.7420123670       -0.6537011267
  H        -0.3392122220        0.3498670391        1.3729786233
 Cl        -0.6776093397       -1.0729405182       -0.4836921268
       7
 i =       22, time =       22.000, E =       -49.5336359891
  O         0.1749229743        1.0267420495        1.8892894143
  O         1.3636132277        1.2468163450       -0.8827940839
  H         1.0584625170        0.9679158438        1.4765572173
  H         0.9918011145        0.3295097720       -0.8947447143
  H         0.5758711742        1.7611126157       -0.6170095802
  H        -0.3440641818        0.3647073889        1.3596784262
 Cl        -0.6811014878       -1.0727664933       -0.4838236003
       7
 i =       23, time =       23.000, E =       -49.5326249296
  O         0.1796446982        1.0250125319        1.8904635388
  O         1.3638725212        1.2446623566       -0.8831275760
  H         1.0598881251        0.9664547269        1.4799440843
  H         1.0107773458        0.3282564423       -0.9059063302
  H         0.5795328732        1.7777932461       -0.5804814934
  H        -0.3463857257        0.3793681098        1.3447700079
 Cl        -0.6845759865       -1.0725790041       -0.4839242063
       7
 i =       24, time =       24.000, E =       -49.5316177398
  O         0.1845140892        1.0230777928        1.8917991298
  O         1.3641234371        1.2431305869       -0.8832841042
  H         1.0607626288        0.9643718661        1.4814115200
  H         1.0241790312        0.3232448376       -0.9170642272
  H         0.5908772460        1.7873414507       -0.5437532748
  H        -0.3459203828        0.3950847128        1.3273963280
 Cl        -0.6883272727       -1.0723623317       -0.4839998809
       7
 i =       25, time =       25.000, E =       -49.5314950883
  O         0.1893910134        1.0209518548        1.8932913487
  O         1.3642996633        1.2424768768       -0.8831712486
  H         1.0628858628        0.9615326187        1.4802772709
  H         1.0301819667        0.3147653902       -0.9275752092
  H         0.6126255637        1.7857815965       -0.5089843582
  H        -0.3424084965        0.4117122419        1.3081291874
 Cl        -0.6923403430       -1.0721154257       -0.4840477882
       7
 i =       26, time =       26.000, E =       -49.5319414366
  O         0.1939070441        1.0187880006        1.8947986548
  O         1.3644883015        1.2425914463       -0.8828222122
  H         1.0670991340        0.9581860315        1.4766133473
  H         1.0282658804        0.3061613249       -0.9361106143
  H         0.6416781120        1.7731109643       -0.4787881208
  H        -0.3362885893        0.4278909002        1.2889084056
 Cl        -0.6963348955       -1.0718523880       -0.4840648025
       7
 i =       27, time =       27.000, E =       -49.5319831152
  O         0.1981466616        1.0165921093        1.8962391487
  O         1.3649531714        1.2430114206       -0.8824069629
  H         1.0729987292        0.9545663782        1.4712799209
  H         1.0195496988        0.3011195672       -0.9422101526
  H         0.6725569377        1.7530620647       -0.4509885015
  H        -0.3281560650        0.4432912293        1.2703152491
 Cl        -0.7003065814       -1.0715692952       -0.4840532935
       7
 i =       28, time =       28.000, E =       -49.5316067239
  O         0.2021922648        1.0144096626        1.8974783497
  O         1.3660423239        1.2431816976       -0.8822091956
  H         1.0791110428        0.9510681347        1.4658115151
  H         1.0057105718        0.3024886323       -0.9455855125
  H         0.6973904505        1.7319377016       -0.4219819990
  H        -0.3189821646        0.4572238131        1.2531820900
 Cl        -0.7041797062       -1.0712663117       -0.4840163624
       7
 i =       29, time =       29.000, E =       -49.5318155059
  O         0.2063695539        1.0121613538        1.8984541017
  O         1.3680526287        1.2427384395       -0.8824619223
  H         1.0842587571        0.9478742554        1.4615310927
  H         0.9875373078        0.3111936277       -0.9465557401
  H         0.7117957866        1.7139219818       -0.3867412624
  H        -0.3093060728        0.4697851380        1.2372757279
 Cl        -0.7081062820       -1.0709253272       -0.4839544433
       7
 i =       30, time =       30.000, E =       -49.5324818846
  O         0.2107021614        1.0099082500        1.8990520516
  O         1.3708645042        1.2417030864       -0.8831579358
  H         1.0876363230        0.9452827301        1.4597613509
  H         0.9663466172        0.3258295611       -0.9456859620
  H         0.7159176227        1.7005031664       -0.3456698089
  H        -0.3002193995        0.4802415631        1.2234043358
 Cl        -0.7120002396       -1.0705470555       -0.4838692248
       7
 i =       31, time =       31.000, E =       -49.5324330462
  O         0.2149941370        1.0077802054        1.8991991388
  O         1.3739321352        1.2404892519       -0.8839547254
  H         1.0895758850        0.9434698636        1.4611056571
  H         0.9437489224        0.3426954349       -0.9439882657
  H         0.7157757613        1.6896619045       -0.3050112738
  H        -0.2928678829        0.4877616094        1.2126746961
 Cl        -0.7156683602       -1.0701452200       -0.4837647936
       7
 i =       32, time =       32.000, E =       -49.5316473323
  O         0.2194042539        1.0056851551        1.8989009604
  O         1.3769754995        1.2394454052       -0.8844904940
  H         1.0916622986        0.9422157357        1.4654682541
  H         0.9188258485        0.3593703735       -0.9424647750
  H         0.7184822989        1.6776898554       -0.2682189084
  H        -0.2872630724        0.4925622924        1.2049182495
 Cl        -0.7193060861       -1.0696939796       -0.4836347876
       7
 i =       33, time =       33.000, E =       -49.5309523756
  O         0.2240793514        1.0035213973        1.8981439055
  O         1.3798500928        1.2387787560       -0.8844588841
  H         1.0959753484        0.9412089927        1.4726371146
  H         0.8904248411        0.3743096938       -0.9421322347
  H         0.7293772675        1.6622829547       -0.2375966062
  H        -0.2832386758        0.4947258433        1.2001757889
 Cl        -0.7231319721       -1.0691590075       -0.4834691810
       7
 i =       34, time =       34.000, E =       -49.5309201649
  O         0.2288603854        1.0013304931        1.8969437279
  O         1.3823353194        1.2385408224       -0.8836651891
  H         1.1041868178        0.9401212407        1.4820074323
  H         0.8597476027        0.3863579194       -0.9440690278
  H         0.7508298375        1.6439829573       -0.2155603292
  H        -0.2806967509        0.4940707947        1.1989298337
 Cl        -0.7271195825       -1.0685352113       -0.4832669718
       7
 i =       35, time =       35.000, E =       -49.5312037982
  O         0.2334486904        0.9992418371        1.8953801600
  O         1.3842612049        1.2385452700       -0.8821765018
  H         1.1162934012        0.9386235409        1.4927740280
  H         0.8301267340        0.3956953404       -0.9489947333
  H         0.7809224382        1.6260527747       -0.2019772186
  H        -0.2792824555        0.4906064173        1.2013226351
 Cl        -0.7310795288       -1.0678453807       -0.4830376408
       7
 i =       36, time =       36.000, E =       -49.5311178935
  O         0.2378636442        0.9972803316        1.8934804373
  O         1.3857284611        1.2384398758       -0.8802535026
  H         1.1310063138        0.9363495575        1.5049575056
  H         0.8037895838        0.4041400573       -0.9572875269
  H         0.8158863428        1.6121789953       -0.1923395315
  H        -0.2783146236        0.4843680588        1.2069933740
 Cl        -0.7350115343       -1.0670851714       -0.4827828627
       7
 i =       37, time =       37.000, E =       -49.5308127775
  O         0.2421902575        0.9954756561        1.8912787613
  O         1.3869390243        1.2378488174       -0.8783063063
  H         1.1459920842        0.9329342036        1.5187964649
  H         0.7826568059        0.4136300814       -0.9688459573
  H         0.8506234672        1.6062966946       -0.1801812836
  H        -0.2770767434        0.4753168072        1.2152234756
 Cl        -0.7389155939       -1.0662517592       -0.4825047952
       7
 i =       38, time =       38.000, E =       -49.5312021233
  O         0.2465210534        0.9938637996        1.8888314586
  O         1.3880654241        1.2365264634       -0.8766990170
  H         1.1589229841        0.9279777895        1.5343980841
  H         0.7678363411        0.4256518959       -0.9830353727
  H         0.8813224074        1.6107986633       -0.1602856587
  H        -0.2749171601        0.4633241839        1.2250469965
 Cl        -0.7427928450       -1.0653444157       -0.4822051203
       7
 i =       39, time =       39.000, E =       -49.5321834833
  O         0.2508972705        0.9924834182        1.8862205664
  O         1.3891179517        1.2344978288       -0.8755021271
  H         1.1684547525        0.9210199774        1.5514950793
  H         0.7593276831        0.4408797141       -0.9987571204
  H         0.9078824471        1.6247172260       -0.1325844032
  H        -0.2712782632        0.4482397425        1.2354533456
 Cl        -0.7466460980       -1.0643647893       -0.4818841214
       7
 i =       40, time =       40.000, E =       -49.5326335688
  O         0.2549667125        0.9914551418        1.8837283353
  O         1.3899225652        1.2322272211       -0.8745325183
  H         1.1741726611        0.9121275702        1.5681803955
  H         0.7563036447        0.4577070821       -1.0135652799
  H         0.9314825886        1.6426477040       -0.1045922385
  H        -0.2659883804        0.4312114525        1.2448890672
 Cl        -0.7502082177       -1.0633881665       -0.4815636817
       7
 i =       41, time =       41.000, E =       -49.5323580196
  O         0.2588079879        0.9907300097        1.8813204564
  O         1.3904841032        1.2300518217       -0.8733801729
  H         1.1779487978        0.9005378198        1.5843642611
  H         0.7560728827        0.4752308087       -1.0270174768
  H         0.9563447988        1.6601872606       -0.0818910409
  H        -0.2584643719        0.4118318845        1.2533815982
 Cl        -0.7536538504       -1.0623762275       -0.4812267305
       7
 i =       42, time =       42.000, E =       -49.5319816849
  O         0.2624532481        0.9902614526        1.8789381221
  O         1.3909342593        1.2282887914       -0.8717254868
  H         1.1820260540        0.8853540189        1.6000225130
  H         0.7555527952        0.4918424078       -1.0388991000
  H         0.9850868791        1.6740482119       -0.0684989048
  H        -0.2479875887        0.3898022301        1.2612626306
 Cl        -0.7571467261       -1.0612870843       -0.4808539052
       7
 i =       43, time =       43.000, E =       -49.5320806642
  O         0.2658176892        0.9900087932        1.8765754053
  O         1.3915004652        1.2272233572       -0.8694749151
  H         1.1880522282        0.8662388405        1.6148748162
  H         0.7517230423        0.5052594235       -1.0486558488
  H         1.0174873128        1.6820742899       -0.0662673087
  H        -0.2341736826        0.3658164770        1.2687987482
 Cl        -0.7607161960       -1.0601151867       -0.4804379402
       7
 i =       44, time =       44.000, E =       -49.5323946358
  O         0.2688152303        0.9899044021        1.8742573808
  O         1.3924247193        1.2269354470       -0.8668605477
  H         1.1960759006        0.8438649292        1.6287676991
  H         0.7429199962        0.5140566154       -1.0553831198
  H         1.0505137091        1.6842787445       -0.0731532120
  H        -0.2173598921        0.3415528297        1.2761573354
 Cl        -0.7642758223       -1.0588915262       -0.4799859814
       7
 i =       45, time =       45.000, E =       -49.5321504068
  O         0.2715026833        0.9898445950        1.8719755051
  O         1.3938766198        1.2271812992       -0.8643839590
  H         1.2045212919        0.8195161493        1.6421356759
  H         0.7297557105        0.5190601427       -1.0580557902
  H         1.0799626612        1.6834251445       -0.0829241855
  H        -0.1984022954        0.3186687127        1.2834913489
 Cl        -0.7677433702       -1.0576464767       -0.4795077723
       7
 i =       46, time =       46.000, E =       -49.5314457625
  O         0.2741821682        0.9897083671        1.8695768714
  O         1.3960074694        1.2275400241       -0.8625206040
  H         1.2116379994        0.7933732050        1.6564749880
  H         0.7137666986        0.5229327342       -1.0556854594
  H         1.1034094678        1.6837056995       -0.0880201502
  H        -0.1774498134        0.2971610791        1.2912386311
 Cl        -0.7712559618       -1.0563309113       -0.4789843578
       7
 i =       47, time =       47.000, E =       -49.5312534836
  O         0.2771326336        0.9893734027        1.8669484559
  O         1.3988628726        1.2276406550       -0.8616688808
  H         1.2158655419        0.7659947045        1.6731300003
  H         0.6970786606        0.5284664883       -1.0470736546
  H         1.1191212172        1.6883982647       -0.0825907911
  H        -0.1552076861        0.2770870410        1.2995250057
 Cl        -0.7749151882       -1.0549041551       -0.4783991316
       7
 i =       48, time =       48.000, E =       -49.5315758633
  O         0.2803679128        0.9887572073        1.8642032197
  O         1.4021376562        1.2273783594       -0.8618742092
  H         1.2164405395        0.7399513936        1.6920010923
  H         0.6826544873        0.5372522722       -1.0320786252
  H         1.1267170459        1.6969005180       -0.0673556897
  H        -0.1344090877        0.2597551781        1.3075965031
 Cl        -0.7785504501       -1.0534306798       -0.4777770694
       7
 i =       49, time =       49.000, E =       -49.5315362743
  O         0.2839426453        0.9878008406        1.8613665705
  O         1.4055697983        1.2269597476       -0.8626998118
  H         1.2143453756        0.7162153630        1.7133963668
  H         0.6715961227        0.5496599752       -1.0110898606
  H         1.1289218043        1.7054019125       -0.0488589386
  H        -0.1168357274        0.2452695146        1.3148977067
 Cl        -0.7821593808       -1.0519113432       -0.4771153175
       7
 i =       50, time =       50.000, E =       -49.5311147866
  O         0.2878280104        0.9864781362        1.8584783093
  O         1.4089377410        1.2267064043       -0.8635956873
  H         1.2116710199        0.6952777384        1.7373856167
  H         0.6638438359        0.5646581615       -0.9852690361
  H         1.1289700178        1.7096752740       -0.0346721510
  H        -0.1040295104        0.2336481576        1.3208361890
 Cl        -0.7857410065       -1.0503470864       -0.4764090376
       7
 i =       51, time =       51.000, E =       -49.5309144038
  O         0.2920512453        0.9847414053        1.8554981274
  O         1.4122063812        1.2268887369       -0.8641680424
  H         1.2106804286        0.6766889873        1.7645862690
  H         0.6582582830        0.5805595312       -0.9556480368
  H         1.1294653541        1.7073872317       -0.0293817968
  H        -0.0967366272        0.2247180541        1.3250713797
 Cl        -0.7893897160       -1.0486965749       -0.4756327665
       7
 i =       52, time =       52.000, E =       -49.5311454040
  O         0.2964299664        0.9826204957        1.8525241492
  O         1.4152572949        1.2276495591       -0.8642151809
  H         1.2128875738        0.6608253121        1.7942331805
  H         0.6536481182        0.5943305063       -0.9250799636
  H         1.1320298013        1.6987648812       -0.0341105105
  H        -0.0954960018        0.2190120433        1.3272213182
 Cl        -0.7930117573       -1.0470015923       -0.4747992786
       7
 i =       53, time =       53.000, E =       -49.5313001368
  O         0.3009370474        0.9800898142        1.8495637179
  O         1.4181082651        1.2289513262       -0.8638141928
  H         1.2180690112        0.6475903479        1.8261378087
  H         0.6490504137        0.6036311099       -0.8957303531
  H         1.1371653782        1.6866391666       -0.0456247253
  H        -0.0997725911        0.2169104022        1.3272969953
 Cl        -0.7966079334       -1.0452608593       -0.4739026362
       7
 i =       54, time =       54.000, E =       -49.5309040427
  O         0.3055988614        0.9771154155        1.8466232327
  O         1.4207813500        1.2305733351       -0.8632662795
  H         1.2243843762        0.6369933440        1.8598839084
  H         0.6445672368        0.6071020624       -0.8695592443
  H         1.1442862045        1.6757686519       -0.0573713441
  H        -0.1083432364        0.2187312871        1.3254977221
 Cl        -0.8001790303       -1.0434719769       -0.4729381190
       7
 i =       55, time =       55.000, E =       -49.5304494636
  O         0.3105433231        0.9736243425        1.8436698359
  O         1.4233085741        1.2322241083       -0.8629464364
  H         1.2293621716        0.6288024975        1.8953560200
  H         0.6414123670        0.6046832411       -0.8476878393
  H         1.1523677853        1.6710461940       -0.0620649131
  H        -0.1197385166        0.2245757445        1.3220312124
 Cl        -0.8037893326       -1.0415993741       -0.4718845272
       7
 i =       56, time =       56.000, E =       -49.5307129782
  O         0.3158436518        0.9695965051        1.8407065788
  O         1.4256224623        1.2336699510       -0.8630690656
  H         1.2307834966        0.6225589122        1.9319964473
  H         0.6415837612        0.5972881371       -0.8309439533
  H         1.1609260904        1.6753476520       -0.0554056543
  H        -0.1323417862        0.2341786175        1.3170018801
 Cl        -0.8074814606       -1.0396164700       -0.4707256226
       7
 i =       57, time =       57.000, E =       -49.5312716209